purchasing systems - sistemi dinamici  di acquisizione##7
economic policies - politiche economiche##19
profit and loss - profitti e perdite##37
force majeure - casi di forza##5
lethal doses - dosi letali##4
consisting in - consistenti nella##4
research and development - ricerca e di sviluppo##8
extracted from - estratti dal##9
sodium nitrate - nitrato di sodio##8
noise levels - livelli di rumore##4
monetary system - sistema monetario##4
market failure - fallimento del mercato##11
swiss confederation - confederazione svizzera##24
medical examination - visita medica##4
european system of integrated economic accounts - sistema europeo dei conti economici integrati##6
accounting value - valore contabile##5
first state - primo stato##10
speed limit - limite di velocita'##4
to the end - alla fine##11
attach to - allega a##4
vegetable oil - olio vegetale##5
the like - il prodotto simile##10
national currency - moneta nazionale##21
environmental condition - condizioni agronomiche  e ambientali##11
civil law - diritto civile##10
economic growth - crescita economica##27
aqueous solution - soluzione acquosa##37
market power - potere di mercato##105
budget for - bilancio per##18
on behalf of third - per conto terzi##4
of the genus - del genere##6
fossil fuels - combustibili fossili##7
in force - in vigore##61
transport service - servizio di trasporto##10
convex polygons - poligono convesso##4
consolidated text - testo unico##5
computer program - programma per elaboratore##17
security risks - rischi di sicurezza##4
developing countries - paesi in via##117
by the time - entro il termine##4
advance of - prima della##12
capital expenditure - spese in conto##4
instead of - invece del##4
mucous membranes - delle membrane##4
works for - opere per##4
final decisions - decisioni definitive##5
first place - primo luogo##7
fundamental principles - principi e  diritti fondamentali##4
wheeled vehicles - applicabili ai veicoli##4
legislative acts - atti legislativi##9
in place of - in luogo delle##5
austenitic steels - gli acciai##4
electromagnetic compatibility - compatibilita' elettromagnetica##51
fixed costs - costi fissi##9
direct action - azioni dirette##5
exclusive of - netto delle##4
bubalus bubalis - bubalus bubalis##6
rural areas - zone rurali##40
public sector - settore pubblico##72
target variables - variabili bersaglio##5
regional policy - politica regionale##7
emanating from - stabilite da##10
dry milk - sostanza secca  del latte##5
end user - utilizzatori finali##4
common measures - misure comuni##5
select committee - comitato ad hoc##5
safety valve - valvola di sicurezza##6
natural gas - gas naturale##211
service charges - compenso del servizio##9
writing of - per iscritto dei##5
transmission time - tempo di trasmissione##11
bear on - recare sulla##4
barium hydroxide - d'idrossido di bario##9
the media - mezzi di comunicazione di massa##6
domestic market - mercato interno##33
operating budget - bilancio di funzionamento##5
lead time - lasso di tempo##4
in so far - in quanto##10
real value - valore reale##4
radio frequencies - frequenze radio##37
quality of life - qualita' della vita##24
public corporation - societa' pubblica##5
regulated market - mercato regolamentato##45
flow charts - diagrammi di flusso##4
tax year - l'anno fiscale##4
silicon carbide - carburo di silicio##35
gas turbine - turbina a gas##5
starting material - materia prima##4
up to at - fino ad##4
mobility of labour - mobilita' della manodopera##4
feed in - mangime in##5
bring to - portare ad##10
secondary education - studi secondari##4
cocoa powder - cacao in##10
minister of finance - ministro delle finanze##4
as follows - come segue##37
da parte del - da parte del##10
determining factor - fattore determinante##12
telephone calls - chiamate telefoniche##5
acer saccharum - acer saccharum##6
in place - in vigore##8
new guinea - nuova guinea##6
animal tissue - tessuto animale##4
shelf life - periodo di validita'##4
chromosomal aberrations - aberrazioni cromosomiche##4
calendar month - mese civile##42
bilge pumps - pompe di sentina##17
time intervals - intervalli di tempo##11
saddle horses - cavalli da##4
check in - controllo nella##4
silica gel - gel di silice##7
dried milk - latte in polvere##7
wholly or in part, - in tutto o in parte##4
marketing costs - spese di commercializzazione##8
real time - tempo reale##7
parent company - societa' madre##10
under way - in corso##5
olive trees - gli olivi##4
exchange rate - tassi di cambio##12
molecular weights - pesi molecolari##7
flow rate - velocita' di flusso##6
bluefin tuna - tonno rosso##34
per se - per se'##6
radio frequency - frequenza radio##5
in consequence - in seguito##4
money laundering - riciclaggio di denaro##5
free trade - libero scambio##16
chemical reactions - reazioni chimiche##4
two points - due punti##9
regression analysis - l'analisi di regressione##4
laminated glass - vetro stratificato##10
in progress - in corso##16
employee labour - lavoro dipendente##4
data communication - trasmissione di dati##4
crew members - membri dell'equipaggio##15
in all circumstances - in ogni caso##4
control operations - operazioni di controllo##4
san juan - san juan##7
distribution agreement - accordo di distribuzione##4
service charge - compenso del servizio##5
into consideration - tener conto##6
competitive market - mercato concorrenziale##5
pet food - alimenti per animali##6
medicago sativa - medicago sativa##5
power unit - unita' di potenza##5
cost structure - struttura dei costi##5
distribution agreements - gli accordi  di distribuzione##4
developed countries - paesi meno sviluppati##5
kraft paper - carta kraft##7
outside of - fuori della##4
luminous flux - flusso luminoso##5
allium cepa - allium cepa##5
in caso di - in caso di##5
cargo ships - navi da carico##8
stems from - derivi da##4
oil production - produzione di olio##5
second reading - seconda lettura##4
radio stations - stazioni radio##5
each day - ogni giorno##32
propulsion systems - sistemi di propulsione##5
transmission shaft - l'albero di trasmissione##4
skimmed milk - latte scremato##57
medical care - cure mediche##4
under control - sotto controllo##8
salmonella enteritidis - salmonella enteritidis##10
sulphuric acid - acido solforico titolato##5
central banks - banche centrali##276
somatic cell - cellule somatiche##8
free zone - zona franca##163
natural resources - risorse naturali##69
term of office - durata del mandato##9
starting point - punto di partenza##33
buffer solution - tampone fosfato##7
written agreements - accordi scritti##4
oral cavity - cavita' orale##5
food product - prodotti alimentari##9
monetary policy - politica monetaria##137
during the previous - nel corso##7
final payment - pagamento definitivo##10
filter papers - carta da filtro##4
audited accounts - conti certificati##5
faeroe islands - isole færøer##19
risk capital - capitale di rischio##40
dairy products - prodotti lattiero-caseari##9
crude oils - oli greggi##4
commercial activity - un'attivita' commerciale##5
simultaneous operation - funzionamento simultaneo##5
spinal cord - midollo spinale##25
export credit - crediti all'esportazione##9
entry of goods - vincolo delle merci##5
code number - numero di codice##59
sales tax - dell'imposta centrale sulle##6
sunk costs - spese irrecuperabili##4
absolute value - valore assoluto##13
french polynesia - polinesia francese##6
total cost - costo complessivo##10
post mortem - post mortem##33
distribution costs - costi di distribuzione##5
radiation field - campo radioattivo##5
storage areas - zone di deposito##13
the day - il giorno##33
in this respect - al riguardo##4
convertible bonds - obbligazioni convertibili##4
take part - prendere parte##5
electronic device - dispositivo elettronico##5
margin call - richiesta di margini##4
diplomatic mission - missione diplomatica##4
trial period - periodo di prova##10
in that - in quanto##8
extend to - estende alle##4
in situ - in situ##9
square root - radice quadrata##5
united kingdom - regno unito##60
just as - cosi' come##4
package insert - foglietto illustrativo##12
factory ship - nave officina##4
brake pedal - pedale del freno##8
the green - il libro##5
diesel engine - motore ad##10
potassium nitrate - nitrato di potassio##8
access point - punto di accesso##4
single text - testo unico##6
scientific research - ricerche scientifiche##5
capital stock - stock di capitale##5
methyl alcohol - alcole metilico##5
condition that - sempre che##4
stock levels - livelli delle scorte##4
executive agency - un'agenzia esecutiva##6
in the course - nel corso##25
schematic drawing - disegno schematico##4
fundamental principle - principio fondamentale##8
debt securities - titoli di debito##25
production line - linea di produzione##6
net worth - patrimonio netto##59
farm worker - lavoratore agricolo##4
import licence - certificato d'importazione##4
chemical industry - dell'industria chimica##7
by the paying - da parte##4
all or part of - in tutto o in parte##13
ski racks - portasci##4
electronic commerce - commercio elettronico##16
pension contributions - contributi pensionistici##33
financial years - esercizi finanziari##8
trade policy - politica commerciale##5
critical points - punti critici##24
fixed price - prezzo fisso##4
clearing houses - stanze di compensazione##5
yolk sac - sacco vitellino##4
lake victoria - catture effettuate  nel lago##4
relative prices - prezzi relativi##9
frequency bands - bande di frequenza##13
add to - aggiungere al##18
power units - unita' di potenza##8
police forces - forze di polizia##4
pension fund - fondo pensione##4
property right - diritto di proprieta'##7
absolute values - valori assoluti##4
up to eur - fino a##7
gas pressure - pressione del gas##5
in so - in modo##4
in all cases - in ogni caso##9
agricultural product - prodotto agricolo##24
measuring instruments - gli strumenti  di misura##5
polyunsaturated fatty acids - acidi grassi polinsaturi##5
data collection - raccolta dei dati##32
foreign trade - commercio estero##5
on-board equipment - apparecchiature a##10
in any event - in ogni caso##14
no doubt - non sussistano##7
buffer solutions - soluzioni tampone##5
advisory board - comitato consultivo##4
in general - in genere##7
controlled substance - sostanza controllata##12
nervous tissue - tessuto nervoso##10
limited companies - societa' a  responsabilita' limitata##6
chemical agents - agenti chimici##23
regression line - linea di regressione##4
purchasing power - potere d'acquisto##27
fixed capital - capitale fisso##10
accounting systems - sistemi di contabilita'##11
square metres - metri quadrati##4
fixed rate - tasso fisso##5
maturity date - data di scadenza##10
pumice stone - pietra pomice##7
by any means - con qualsiasi mezzo##13
security certificate - certificato internazionale  di sicurezza##18
monetary fund - fondo monetario##8
found for - accertati per##5
fishing gears - attrezzi da pesca##8
into force - in vigore##68
critical mass - massa critica##18
room temperature - temperatura ambiente##52
in the meantime - nel frattempo##4
export duty - dazi all'esportazione##7
medical practitioner - medico autorizzato##7
in every case - in ogni caso##4
public law - diritto pubblico##60
focal points - punti focali##5
average price - prezzo medio##18
air traffic management - gestione del traffico aereo##24
first period - primo periodo##9
public debt - debito pubblico##10
low temperature - bassa temperatura##6
calcium nitrate - nitrato di calcio##7
aegean islands - isole minori##8
class method - metodo della classe##8
steering mechanism - dispositivo di guida##6
cargo ship - nave da carico##7
standard deviation - deviazione standard##83
gas engines - motori a gas##5
mutual funds - fondi comuni##14
resistance thermometer - termometro a resistenza##4
traffic control - controllo del traffico##19
direct mail - pubblicita' diretta##4
two times - due volte##4
access services - servizi di accesso##7
trade names - denominazioni commerciali##8
official journal - gazzetta ufficiale##23
in vitro - in vitro##37
bemisia tabaci - bemisia tabaci##4
working group - gruppo di lavoro##52
surveillance system - sistema di sorveglianza##7
rate of interest - tasso d'interesse##4
in relation - in merito##4
favourable terms - condizioni piu' favorevoli##8
basic principle - principio fondamentale##6
blood banks - banche del sangue##6
false statements - presentando false dichiarazioni##4
as regards - quanto riguarda##15
new technology - nuove tecnologie##4
social policy - politica sociale##31
et al - et al,##6
bison bison - bison bison##4
brassica juncea - brassica juncea##4
achromatic lens - lente acromatica##4
direct support - sostegno diretto##34
saturated fatty acids - acidi grassi saturi##4
nuclear fuel - combustibile nucleare##12
mutual understanding - reciproca comprensione##4
north sea - mare del##15
ethyl acetate - acetato di etile##8
natural fibres - fibre naturali##23
food additive - additivo alimentare##6
bus services - servizi di autobus##5
written communications - comunicazioni scritte##4
taken place - avuto luogo##8
done for - effettuati per##6
end products - prodotti finiti##6
fortified wine - vino alcolizzato##18
regulated markets - mercato regolamentato##5
polyurethane foam - schiuma di poliuretano##4
sweet corn - granturco dolce##14
market research - ricerche di mercato##7
at first - alla prima##4
price stability - stabilita' dei prezzi##8
electric shock - scosse elettriche##8
agenda items - punti dell'ordine##5
tax system - regime fiscale##4
santa maria - santa maria##5
market structure - struttura del mercato##4
lower deck - piano inferiore##10
minimum price - prezzo minimo##120
within the context - nel corso##5
at the disposal - a disposizione##20
current accounts - conti delle operazioni##5
not or - non sono o##4
natural resource - risorsa naturale##4
during the preceding - nel corso##4
representative sample - campione rappresentativo##38
mortality rate - tasso di mortalita'##7
to the extent - per quanto##15
for the purposes - ai fini##39
apium graveolens - apium graveolens##4
operating procedures - procedure operative##22
in the context - nel caso##4
running time - tempo di marcia##5
absorption coefficient - coefficiente di assorbimento##12
electronic form - sotto forma elettronica##12
government debt - debito pubblico##7
air traffic - traffico aereo##110
control data - dati di controllo##10
public services - servizi pubblici##13
management system - sistema di gestione##92
animal material - materiali di origine##5
control unit - unita' di controllo##8
sodium thiosulphate - tiosolfato di sodio##15
in vivo - in vivo##11
in the cases - nel caso##9
life cycle - ciclo di vita##30
15 minutes - 15 minuti##48
fall in - rientrano nella##5
belgian congo - congo belga##4
value of production - valore della produzione##5
shell plating - fasciame esterno##21
domain name - nome di dominio##54
communicable diseases - malattie trasmissibili##58
operate on - operare su##4
gamma rays - raggi gamma##5
communication systems - sistemi di comunicazione##9
fall into - rientrano in##8
rest periods - periodi di riposo##16
ex officio - ex officio##11
the french - la repubblica francese##5
leading edge - bordo anteriore##12
arrive at - arrivare ad##4
skeletal muscle - dai muscoli scheletrici##4
accounting system - sistema di contabilita'##9
professional associations - associazioni professionali##6
per person - per persona##4
fuel cells - celle a combustibile##4
background levels - livelli di fondo##5
point of sale - punto vendita##4
kinetic energy - energia cinetica##4
in particular - in particolare##75
endangered species - delle specie##8
average earnings - guadagno medio##4
random sample - campione casuale##4
finished product - prodotto finito##31
net cost - costo netto##24
atomic number  - numero atomico##5
burden of proof - l'onere della prova##4
and gates - e i##4
whole milk - latte intero##16
organic fertilizers - fertilizzanti organici##9
social groups - gruppi sociali##4
focus on - concentrarsi sulle##5
nitric acid - acido nitrico##4
sparkling wines - vini spumanti##58
random sampling - campionamento casuale##4
nominal value - valore nominale##50
four times - quattro volte##15
gross national product - prodotto nazionale lordo##8
data set - serie di informazioni##4
fifth column - quinta colonna##5
joint venture - joint venture##4
working for - lavorano per##5
along with - unitamente alle##4
brown rot - marciume bruno  della patata##4
providing that - condizione che##5
be well - essere ben##11
potential competition - concorrenza effettiva  o potenziale##5
liquefied petroleum gas - gas di petrolio liquefatto##15
pseudomonas solanacearum - pseudomonas solanacearum##33
confidential information - informazione riservata##7
leonardo da vinci - leonardo da vinci##8
testo unico - testo unico##6
to the detriment - a scapito##5
auxiliary equipment - dispositivi ausiliari##9
ammonium carbonate - carbonato d'ammonio##5
mineral wools - lane minerali##4
amount of claims - l'importo dei sinistri##5
public expenditure - spese pubbliche##10
per head - per capo##9
in a manner - in modo##21
filter paper - carta da filtro##27
portable computer - computer portatile##14
inter alia - in particolare##17
in view - in vista##7
communications network - rete di comunicazione##4
world market - mercato mondiale##29
red light - luce rossa##12
exclusive right - diritto esclusivo##33
aim at - mirare a##5
automatic transmission - trasmissione automatica##4
fuel system - sistema di alimentazione##7
saint kitts - saint kitts##5
organic compound - composto organico##6
per cent - per cento##18
except that - salvo il  fatto che##4
free form - sotto forma libera##4
security system - sistema di sicurezza##14
central heating - riscaldamento centrale##5
contagious diseases - malattie contagiose##4
plastic bag - sacchetto di plastica##5
commercial enterprises - imprese commerciali##6
legal representative - rappresentante legale##13
carry out - eseguire le operazioni##6
and so - e cosi'##4
control for - controllo per##4
lolium perenne - lolium perenne##4
promotional material - materiale promozionale##4
national government - governo nazionale##4
activated charcoal - carbone attivo##8
leap years - anni bisestili##4
saint vincent - saint vincent##10
calendar months - mesi civili##6
serial number - numero d'ordine##36
direct actions - azioni dirette##15
price reductions - riduzioni di prezzo##5
external trade - commercio estero##15
accelerator pedal - pedale dell'acceleratore##6
lower limits - limiti inferiori##6
consists in - consiste nel##5
budget line - linea di bilancio##9
per hour - per ora##5
raw materials - materie prime destinate##4
due date - data di scadenza##10
trace elements - gli oligoelementi##4
worked for - lavorato per##4
chemical reaction - reazione chimica##7
be due - essere pagata##4
basic price - prezzo base##5
committee members - membri del comitato##7
offer prices - prezzi d'offerta##5
civil servants - personale della pubblica##6
ex post - ex post##17
food products - prodotti alimentari##34
sampling rate - tasso di campionamento##7
postal code - codice postale##6
during the course of - nel corso della##4
telephone services - servizi telefonici##27
to the condition that - a condizione che##6
face value - valore nominale##5
trust fund - fondo fiduciario##5
outer boundaries - delimitazioni esterne##4
basic training - formazione di base##4
rolling stock - sottosistema materiale##5
price control - controllo dei prezzi##4
until it reaches - fino al##4
at the same - nel contempo##8
fire doors - porte tagliafuoco##13
water pollution - dell'inquinamento idrico##4
electrical resistance - resistenza elettrica##11
nervous system - sistema nervoso##13
securities markets - mercati mobiliari##4
physical properties - proprieta' fisiche##9
tensile strength - resistenza alla##11
pisum sativum - pisum sativum##4
methylene blue - blu di metilene##20
monetary aggregates - aggregati monetari##7
warning device - dispositivo di allarme##6
market forces - forze di mercato##8
brake cylinder - cilindro del freno##4
channel tunnel - tunnel sotto##8
bank on - banca per##8
allium ascalonicum - allium ascalonicum##4
new brunswick - nuovo brunswick##5
make use - far uso##5
natural state - allo stato naturale##20
p and - p e##4
executive secretary - segretario esecutivo##10
market values - valori di mercato##10
open market - mercato aperta##4
patent law - diritto dei brevetti##7
time period - periodo di tempo##32
breast implants - protesi mammarie##10
durable goods - beni durevoli##12
response time - tempo di risposta##8
whole number - numero intero##9
propulsion system - sistema di propulsione##15
type as - tipo di  veicolo quale##5
30 minutes - 30 minuti##101
preliminary examination - esame preliminare##5
vapour pressure - pressione di vapore##39
natural logarithm - logaritmo naturale##4
crew member - membro dell'equipaggio##4
in the field - in materia##5
cost accounting - contabilita' dei costi##17
environmental conditions - condizioni ambientali##54
cerebrospinal fluid - liquido cerebrospinale##4
direct costs - costi diretti##6
matter to - questione al##5
dairy cows - vacche da##28
in connection with - in relazione alle##4
provides for - prevede per##8
food chain - catena alimentare##5
alloy steel - acciai legati##5
sheltered workshops - laboratori protetti##5
electronic money - moneta elettronica##16
plant material - materiale vegetale##31
dead animals - animali morti##14
double glazing - doppio vetro##5
in a case - nel caso##4
by the competent - da parte##10
production system - sistema di produzione##7
sale price - prezzo di vendita##12
electronic data interchange - scambio elettronico di dati##4
competitive conditions - condizioni di concorrenza##12
cover for - copertura per##5
secondary market - mercato secondario##4
account being taken - tener conto##4
financial condition - situazione finanziaria##5
replacement cost - costo di sostituzione##7
unit cost - costo unitario##6
source materials - materiali di base##10
upper surface - superficie superiore##14
unit price - prezzo unitario##14
the swiss - le autorita' svizzere##4
balearic islands - isole baleari##5
average costs - costi medi##8
classification system - sistema di classificazione##14
ex ante - ex ante##28
raw data - dati grezzi##14
receiving system - sistema ricevente##8
governing board - consiglio direttivo##7
domestic animal - animale domestico##4
on air - sulla qualita' dell'aria##5
provide for - forniscono per##8
atlantic ocean - dell'oceano atlantico##5
president of the council - presidente del consiglio##5
trade mark - marchio di impresa##34
in whole or in part - in tutto o in parte##20
relative density - densita' relativa##32
commercial banks - banche commerciali##4
electric power - energia elettrica##9
maximum price - prezzo massimo##6
european parliament - parlamento europeo##78
chairman of the board - presidente del consiglio##6
type a - tipo a##14
european market - mercato europeo##8
animal tissues - tessuti animali##9
white paper - carta di colore##4
single currency - moneta unica##34
allium porrum - allium porrum##4
standard deviations - deviazioni standard##12
in any case - in ogni caso##19
south africa - il sudafrica##12
real terms - termini reali##14
data received - dati ricevuti##9
nuclear energy - dell'energia nucleare##9
department of commerce - dipartimento del commercio##17
nitrogen dioxide - biossido di azoto##25
electrical energy - energia elettrica##6
contract for - contratto per##10
sent for - inviati per##6
data base - base di dati##9
during the course - nel corso##10
developing country - paese in via di sviluppo##4
civil protection - protezione civile##15
immediately after - non appena##6
animal fats - grassi animali##5
proportional sample - campione proporzionale##4
states of america - stati uniti##16
road test - prova su##4
production lines - linee di produzione##7
electrical system - sistema elettrico##6
with regard - per quanto##6
financial support - sostegno finanziario##73
commercial activities - attivita' commerciali##9
solanum tuberosum - solanum tuberosum##8
relief valves - valvole di sicurezza##4
mechanical energy - energia meccanica##5
calendar years - anni civili##34
discount rate - tasso di sconto##12
the date - il giorno##19
cranial cavity - cavita' cranica##5
credit line - linea di credito##8
computer networks - reti informatiche##7
price discrimination - discriminazione di prezzo##5
bilge pump - pompa di sentina##4
rear window - lunotto posteriore##4
base rate - tasso base##4
et al  - et al,##6
capital markets - mercati dei capitali##4
price increase - aumento dei prezzi##7
allium schoenoprasum - allium schoenoprasum##4
anas platyrhynchos - anas platyrhynchos##4
final balance - saldo finale##4
into effect - in vigore##5
circuit breaker - l'interruttore di circuito##4
exchange rates - tassi di cambio##47
federal court - tribunale federale##4
in the sense that - nel senso che##4
nucleic acid - acido nucleico##6
public debate - dibattito pubblico##5
dividing line - linea di demarcazione##5
brake system - sistema di frenatura##5
rest period - periodo di riposo##10
financial statement - situazione finanziaria##6
mechanical devices - dispositivi meccanici##4
factor cost - costo dei fattori##19
bed linen - biancheria da  letto nella##4
until at - fino al##4
de jure - de jure##5
rule in - norma di cui##6
sugar syrup - sciroppo di zucchero##9
in this way - in tal modo##4
to force - a forza##4
out of - fuori del##4
in fact - in effetti##4
pension funds - fondi pensione##116
take over - prendere in consegna##4
european countries - paesi europei##8
electromagnetic interference - perturbazioni elettromagnetiche##8
bilge wells - pozzetti di sentina##4
copper oxide - d'ossido di rame##5
compound interest - interessi composti##9
sales promotion - promozione delle vendite##5
chain reaction - reazione a catena##6
by hand - mediante consegna  a mano##5
electronics industries - electronics industries##5
monetary unit - unita' monetaria##6
sickness benefits - prestazioni di malattia##7
payment systems - sistemi di pagamento##10
yellowfin tuna - tonno albacora##4
somatic cells - cellule somatiche##7
of the door - della porta##7
simple interest - interesse semplice##4
disposable income - reddito nazionale disponibile##6
sparkling wine - vini spumanti##16
modus vivendi - modus vivendi##10
national market - mercato nazionale##5
manufacturing plant - stabilimento di produzione##5
in each case - in ogni caso##4
communication network - rete di comunicazione##5
in cases - nel caso##22
retirement pension - pensione di anzianita'##51
national information - informazioni nazionali##4
local calls - chiamate locali##5
percentage points - punti percentuali##46
reaction time - tempo di reazione##6
average rate - tasso medio##11
representative samples - campioni rappresentativi##24
information which - dato che##6
in black - in nero##4
in order to - in modo da##39
comparable with - comparabili con##4
economic commission for europe - commissione economica per l'europa##43
prunus laurocerasus - prunus laurocerasus##7
shipping company - societa' di navigazione##11
digital television - televisione digitale##13
asset management - gestione patrimoniale##8
chemical compounds - composti chimici##4
security council - consiglio di sicurezza##24
trade on - commerciali sul##4
steering committee - comitato scientifico direttivo##11
farm buildings - fabbricati agricoli##4
in a way - in modo##13
safety factors - fattori di sicurezza##5
body type - tipo di corpo##7
foie gras - foie-gras stordite,##4
reference point - punto di riferimento##31
energy level - livello iniziale  di energia##5
comparison with - rispetto alle##6
into account - tener conto##36
social affairs - affari sociali##4
foreign ministers - ministri degli  affari esteri##4
s republic of china - repubblica popolare cinese##45
experimental methods - metodi sperimentali##4
aliquot part - parte aliquota##45
straight line - linea retta##4
in question - in questione##67
maternity leave - congedo di maternita'##13
economic value - valore economico##11
atomic number - numero atomico##5
general interest - interesse generale##7
high level - alto livello##12
old-age pension - pensione di vecchiaia##8
gas system - sistema del gas##5
negotiable instruments - strumenti negoziabili##4
public administration - pubblica amministrazione##7
military service - servizio militare##6
new line - nuova riga##4
fuel oils - oli combustibili##8
newcastle disease - dalla malattia##15
veterinary medicine - medicina umana  o veterinaria##5
general agreement - dell'accordo generale##21
in use - in vigore##6
property rights - diritti di proprieta'##83
stand for - riposare per##16
free zones - zona franca##5
animal product - prodotto di origine##4
shipping companies - societa' di navigazione##6
ventilation system - impianto di ventilazione##5
act as - agire come##4
whole numbers - numeri interi##7
on paper - su supporto##8
real income - reddito reale##4
financial losses - perdite finanziarie##7
force from - applicabili a partire##7
administrative units - unita' amministrative##11
ftc act - ftc act##5
liquid nitrogen - azoto liquido##7
animal fat - grassi animali##7
tangible assets - beni materiali##5
absent from - fuori dal##9
aliquot parts - parti aliquote##4
exclusive or - esclusiva o##4
aqueous solutions - soluzioni acquose##15
price competition - concorrenza sui prezzi##4
overseas countries - paesi e  territori d'oltremare##30
emergency procedure - procedura d'urgenza##4
connective tissue - tessuto connettivo##8
rely on - fare affidamento sulle##4
minimum number - numero minimo##123
take to - adottare per##6
taking into account - tener conto##10
financial position - situazione finanziaria##22
geneva convention - convenzione di ginevra##21
pasteurized milk - latte pastorizzato##11
speed limits - limiti di velocita'##4
distilled water - acqua distillata##36
for the purpose - ai fini##30
external costs - costi esterni##11
natural phenomenon - fenomeno naturale##4
executive agencies - agenzie esecutive##8
el salvador - el salvador##6
financial system - sistema finanziario##14
age bracket - fascia di eta'##9
composite materials - materiali compositi##5
asian countries - paesi asiatici##4
unit costs - costi unitari##13
designate as - designare come##7
legal system - sistema giuridico##8
recording system - sistema di registrazione##6
methyl bromide - bromuro di metile##26
product lines - linee di prodotti##4
taken into account - tenere conto##14
taking account - tener conto##14
accounts receivable - conti attivi##6
salmonella typhimurium - salmonella typhimurium##17
first quarter - primo trimestre##21
exhaust systems - dispositivi silenziatori##5
consumer credit - credito al consumo##11
electrical circuit - circuito elettrico##5
blood platelets - piastrine del sangue##5
social structures - strutture economiche  e sociali##10
nuclear weapons - armi nucleari##4
to that effect - a tal fine##7
governing council - consiglio direttivo##13
account opened - conto aperto##5
us market - mercato statunitense##5
essential oil - olio essenziale##4
form part - far parte##10
steering group - gruppo direttivo##4
sliding doors - porte a scorrimento##5
added value - valore aggiunto##29
for purposes - ai fini##4
load lines - bordo libero##9
measuring system - sistema di misurazione##5
consolidated balance - bilancio consolidato##9
in good faith - in buona fede##8
at the end - alla fine##36
atmospheric pressure - pressione atmosferica##36
fixed point - punto fisso##4
short time - breve tempo##5
social services - servizi sociali##4
of value - del valore##10
weighted average price - prezzo medio ponderato##5
absolute temperature - temperatura assoluta##5
police office - ufficio europeo  di polizia##5
at most - al massimo##7
trichloroacetic acid - acido tricloroacetico##4
safety glass - vetro di sicurezza##13
banking system - sistema bancario##4
supply line - condotta di alimentazione##9
scientific methods - metodi scientifici##4
office furniture - mobili da ufficio##4
value of output - valore della produzione##8
social insurance - assicurazioni sociali##4
economic behaviour - comportamento economico##4
biological agent - agente biologico##8
fire alarm - allarme incendio##4
telephone service - servizio telefonico##5
zinc oxide - dell'ossido di zinco##6
take note - prendono atto##6
be part - far parte##5
wholly or partly - in tutto o in parte##7
six times - sei volte##12
but for - ma per##7
even when - anche se##12
resolving power - potere di risoluzione##4
public body - ente pubblico##9
balkan countries - paesi dei##7
value of the output - valore della produzione##4
pricing policy - politica dei prezzi##6
market concentration - concentrazione del mercato##5
legal proceedings - azioni giudiziarie##6
vocational training - formazione tecnica  e professionale##4
limited liability - responsabilita' limitata##4
credit agreement - contratto di credito##11
fruit juice - succo naturale  di frutta##12
keep in - conservare in##10
vertebral column - colonna vertebrale##30
saudi arabia - dell'arabia saudita##5
rupicapra rupicapra - rupicapra rupicapra##4
direct taxes - imposte dirette##11
circuit breakers - interruttori di circuito##5
fresh water - acqua dolce##4
closed in - chiusi in##5
structural surpluses - eccedenze strutturali##4
lifting devices - dispositivi di sollevamento##6
armed forces - forze armate##35
pay for - pagare per##8
support systems - sistemi di supporto##8
occupational disease - malattia professionale##71
multiple choice - scelta multipla##4
european central bank - banca centrale europea##17
peace process - processo di pace##9
official documents - documenti ufficiali##12
cheddar cheeses - formaggi cheddar##4
competition policy - politica della concorrenza##7
road surface - superficie stradale##8
electronic communication - comunicazione elettronica##11
60 minutes - 60 minuti##18
capital expenditures - spese in  conto capitale##4
durum wheat - frumento (grano)##6
financial organisations - organismi finanziari##10
qualitative analysis - un'analisi qualitativa##4
with a view - ai fini##7
every month - ogni mese##13
mineral oils - oli minerali##29
upper deck - piano superiore##10
even where - anche se##10
capillary tube - tubo capillare##12
field strength - campo elettromagnetico##6
storage rooms - locali di deposito##5
railway system - sistema ferroviario##10
price paid - prezzo pagato##12
export credits - crediti all'esportazione##51
erlenmeyer flask - beuta da##7
postal service - servizio postale##7
taking over - presa in consegna##9
hong kong - hong kong##14
patent application - domanda di brevetto##9
once again - ancora una##7
tour operator - operatore turistico##5
suction pump - pompa aspirante##4
public order - ordine pubblico##4
eu countries - paesi dell'ue##4
whole blood - sangue intero##22
the netherlands - i paesi##11
sugar cane - canna da zucchero##6
discriminate between - discriminare tra##7
type b - tipo b##27
territorial waters - acque territoriali##40
lubricating oils - oli lubrificanti##11
collective agreements - contratti collettivi##11
production cost - costi di produzione##7
liquid paraffin - paraffina liquida##4
council of ministers - consiglio dei ministri##4
sound pressure level - livello di pressione sonora##15
electronic devices - dispositivi elettronici##4
barium sulphate - solfato di bario##5
before the - prima dello##7
fire drills - esercitazioni antincendio##4
number 1 - numero 1##5
each week - ogni settimana##29
security systems - sistemi di sicurezza##5
low temperatures - basse temperature##4
exhaust pipe - condotto di scarico##20
diplomatic missions - personale di servizio##4
time periods - periodi di tempo##4
factory ships - navi officina##11
maintenance staff - personale di manutenzione##4
combustible materials - materiali combustibili##5
of the rest - del resto##11
chemical elements - gli elementi chimici##15
reserve assets - attivita' di riserva##28
for 24 hours - per 24 ore##9
light sources - sorgenti luminose##25
precious metals - metalli preziosi##7
lie with - situato con##4
gross domestic product - prodotto interno lordo##10
compulsory insurance - assicurazione obbligatoria##6
domain names - nomi di dominio##19
on land - su terreni##17
staff members - i membri  del personale##6
gene mutation - mutazione genica##10
carbon dioxide - biossido di carbonio##73
no more than - non puo' essere superiore a##8
computer programs - programmi per elaboratore##5
compressed air - aria compressa##4
